# vtk DataFile Version 2.0
Grid generated by gridLab. FileName: ../../data/Space.geo.3d.vtk
ASCII
DATASET UNSTRUCTURED_GRID
POINTS 325 double
0 0 0
-0.0613 0.118 0
-0.229 0.23 0
-0.449 0.3 0
-0.719 0.347 0
-1.04 0.405 0
-1.38 0.592 0
-1.8 0.765 0
-2.36 0.763 0
-2.94 0.721 0
-0.0614 0.11 0.0581
-0.229 0.216 0.119
-0.449 0.281 0.162
-0.718 0.327 0.195
-1.04 0.366 0.223
-1.38 0.507 0.244
-1.8 0.709 0.292
-2.36 0.684 0.318
-2.94 0.609 0.326
-0.0617 0.0885 0.107
-0.229 0.167 0.224
-0.449 0.214 0.31
-0.718 0.252 0.376
-1.04 0.295 0.439
-1.38 0.385 0.473
-1.8 0.515 0.521
-2.36 0.461 0.56
-2.94 0.407 0.613
-0.062 0.0561 0.148
-0.229 0.0907 0.311
-0.449 0.102 0.428
-0.718 0.112 0.513
-1.04 0.151 0.611
-1.38 0.224 0.676
-1.81 0.265 0.69
-2.36 0.191 0.75
-2.94 0.196 0.895
-0.0623 0.0103 0.175
-0.229 -0.0115 0.366
-0.449 -0.0435 0.5
-0.718 -0.066 0.594
-1.04 -0.0593 0.694
-1.38 -0.0252 0.754
-1.81 -0.0192 0.789
-2.36 -0.0901 0.927
-2.94 -0.0905 1.1
-0.0626 -0.0435 0.186
-0.23 -0.127 0.387
-0.448 -0.204 0.528
-0.718 -0.26 0.635
-1.04 -0.286 0.721
-1.38 -0.286 0.794
-1.81 -0.299 0.903
-2.36 -0.374 1.11
-2.94 -0.415 1.25
-0.0627 -0.0933 0.167
-0.23 -0.233 0.341
-0.448 -0.347 0.462
-0.718 -0.429 0.56
-1.04 -0.486 0.65
-1.38 -0.521 0.753
-1.8 -0.547 0.873
-2.36 -0.565 0.959
-2.94 -0.567 1.02
-0.0624 -0.124 0.12
-0.229 -0.282 0.235
-0.448 -0.4 0.311
-0.718 -0.479 0.372
-1.04 -0.528 0.43
-1.38 -0.553 0.497
-1.8 -0.565 0.571
-2.36 -0.566 0.626
-2.94 -0.564 0.667
-0.062 -0.136 0.0587
-0.229 -0.294 0.112
-0.449 -0.405 0.146
-0.718 -0.482 0.175
-1.04 -0.53 0.202
-1.38 -0.555 0.234
-1.8 -0.566 0.269
-2.36 -0.567 0.294
-2.94 -0.564 0.312
-0.0619 -0.142 2.02e-18
-0.229 -0.299 8.01e-18
-0.449 -0.407 -5.11e-18
-0.718 -0.481 -1.4e-17
-1.04 -0.53 1.62e-19
-1.38 -0.555 2.05e-18
-1.8 -0.567 1.51e-21
-2.36 -0.567 7.07e-19
-2.94 -0.564 1.39e-17
-3.4 0.67 0
-3.82 0.618 0
-4.2 0.57 0
-4.55 0.526 0
-4.88 0.486 0
-5.17 0.448 0
-5.44 0.412 0
-5.69 0.379 0
-5.88 0.352 0
-3.43 0.514 0.375
-3.85 0.367 0.519
-4.21 0.274 0.702
-4.55 0.202 0.819
-4.88 0.125 0.902
-5.18 0.0782 0.987
-5.46 0.0963 1.08
-5.7 0.145 1.17
-5.88 0.205 1.19
-3.49 0.333 0.716
-3.94 0.174 0.959
-4.3 -0.0295 1.2
-4.67 0.0378 1.39
-5 0.206 1.51
-5.31 0.357 1.62
-5.6 0.498 1.73
-5.86 0.608 1.81
-6.09 0.607 1.82
-3.52 0.136 1.01
-4 -0.0521 1.2
-4.38 0.108 1.46
-4.74 0.332 1.63
-5.07 0.523 1.77
-5.39 0.697 1.9
-5.68 0.859 2.03
-5.96 0.981 2.12
-6.21 0.984 2.13
-3.53 -0.115 1.2
-4.03 -0.0292 1.39
-4.41 0.219 1.58
-4.76 0.447 1.75
-5.09 0.65 1.9
-5.4 0.833 2.03
-5.68 1 2.16
-5.96 1.13 2.26
-6.21 1.13 2.26
-3.54 -0.385 1.32
-4.01 -0.129 1.44
-4.39 0.163 1.64
-4.74 0.398 1.81
-5.08 0.597 1.97
-5.39 0.775 2.1
-5.68 0.939 2.23
-5.96 1.05 2.32
-6.21 1.05 2.33
-3.53 -0.572 1.13
-3.98 -0.35 1.36
-4.34 -0.00576 1.53
-4.7 0.217 1.7
-5.05 0.404 1.84
-5.37 0.574 1.96
-5.67 0.731 2.07
-5.96 0.837 2.16
-6.21 0.834 2.16
-3.49 -0.564 0.768
-3.9 -0.57 1.13
-4.24 -0.391 1.39
-4.59 -0.168 1.43
-4.92 0.000376 1.5
-5.23 0.142 1.6
-5.52 0.269 1.69
-5.79 0.356 1.76
-6 0.359 1.75
-3.42 -0.564 0.373
-3.84 -0.564 0.579
-4.2 -0.564 0.783
-4.54 -0.565 0.918
-4.86 -0.565 1.02
-5.16 -0.561 1.11
-5.44 -0.549 1.19
-5.69 -0.535 1.24
-5.88 -0.548 1.25
-3.4 -0.564 -1.91e-17
-3.82 -0.563 1.16e-17
-4.2 -0.563 3.6e-17
-4.55 -0.563 2.59e-17
-4.88 -0.563 -1.1e-17
-5.17 -0.563 -2.05e-17
-5.44 -0.563 -2.41e-20
-5.69 -0.563 5.43e-17
-5.88 -0.563 4.35e-19
-0.0614 0.11 -0.0581
-0.229 0.216 -0.119
-0.449 0.281 -0.162
-0.718 0.327 -0.195
-1.04 0.366 -0.223
-1.38 0.507 -0.244
-1.8 0.709 -0.292
-2.36 0.684 -0.318
-2.94 0.609 -0.326
-0.0617 0.0885 -0.107
-0.229 0.167 -0.224
-0.449 0.214 -0.31
-0.718 0.252 -0.376
-1.04 0.295 -0.439
-1.38 0.385 -0.473
-1.8 0.515 -0.521
-2.36 0.461 -0.56
-2.94 0.407 -0.613
-0.062 0.0561 -0.148
-0.229 0.0907 -0.311
-0.449 0.102 -0.428
-0.718 0.112 -0.513
-1.04 0.151 -0.611
-1.38 0.224 -0.676
-1.81 0.265 -0.69
-2.36 0.191 -0.75
-2.94 0.196 -0.895
-0.0623 0.0103 -0.175
-0.229 -0.0115 -0.366
-0.449 -0.0435 -0.5
-0.718 -0.066 -0.594
-1.04 -0.0593 -0.694
-1.38 -0.0252 -0.754
-1.81 -0.0192 -0.789
-2.36 -0.0901 -0.928
-2.94 -0.0905 -1.1
-0.0626 -0.0435 -0.186
-0.23 -0.127 -0.387
-0.448 -0.204 -0.528
-0.718 -0.26 -0.635
-1.04 -0.286 -0.721
-1.38 -0.286 -0.794
-1.81 -0.299 -0.903
-2.36 -0.374 -1.11
-2.94 -0.415 -1.25
-0.0627 -0.0933 -0.167
-0.23 -0.233 -0.341
-0.448 -0.347 -0.462
-0.718 -0.429 -0.56
-1.04 -0.486 -0.65
-1.38 -0.521 -0.753
-1.8 -0.547 -0.874
-2.36 -0.565 -0.959
-2.94 -0.567 -1.02
-0.0624 -0.124 -0.12
-0.229 -0.282 -0.235
-0.448 -0.4 -0.311
-0.718 -0.479 -0.372
-1.04 -0.528 -0.43
-1.38 -0.553 -0.497
-1.8 -0.565 -0.571
-2.36 -0.566 -0.626
-2.94 -0.564 -0.667
-0.062 -0.136 -0.0587
-0.229 -0.294 -0.112
-0.449 -0.405 -0.146
-0.718 -0.482 -0.175
-1.04 -0.53 -0.202
-1.38 -0.555 -0.234
-1.8 -0.566 -0.269
-2.36 -0.567 -0.295
-2.94 -0.564 -0.312
-3.43 0.514 -0.375
-3.85 0.367 -0.519
-4.21 0.274 -0.702
-4.55 0.202 -0.819
-4.88 0.125 -0.902
-5.18 0.0782 -0.987
-5.46 0.0963 -1.08
-5.7 0.145 -1.17
-5.88 0.205 -1.19
-3.49 0.333 -0.716
-3.94 0.174 -0.958
-4.3 -0.0295 -1.2
-4.67 0.0378 -1.39
-5 0.206 -1.51
-5.31 0.357 -1.62
-5.6 0.498 -1.73
-5.86 0.608 -1.81
-6.09 0.607 -1.82
-3.52 0.136 -1.01
-4 -0.0521 -1.2
-4.38 0.108 -1.46
-4.74 0.332 -1.63
-5.07 0.523 -1.77
-5.39 0.697 -1.9
-5.68 0.859 -2.03
-5.96 0.981 -2.12
-6.21 0.984 -2.13
-3.53 -0.115 -1.2
-4.03 -0.0292 -1.39
-4.41 0.219 -1.58
-4.76 0.447 -1.75
-5.09 0.65 -1.9
-5.4 0.833 -2.03
-5.68 1 -2.16
-5.96 1.13 -2.26
-6.21 1.13 -2.26
-3.54 -0.385 -1.32
-4.01 -0.129 -1.44
-4.39 0.163 -1.64
-4.74 0.398 -1.81
-5.08 0.597 -1.97
-5.39 0.775 -2.11
-5.68 0.939 -2.23
-5.96 1.05 -2.32
-6.21 1.05 -2.33
-3.53 -0.572 -1.13
-3.98 -0.35 -1.36
-4.34 -0.00576 -1.53
-4.7 0.217 -1.7
-5.05 0.404 -1.84
-5.37 0.574 -1.96
-5.67 0.731 -2.07
-5.96 0.837 -2.16
-6.21 0.834 -2.16
-3.49 -0.564 -0.767
-3.9 -0.57 -1.13
-4.24 -0.391 -1.39
-4.59 -0.168 -1.43
-4.92 0.000376 -1.5
-5.23 0.142 -1.6
-5.52 0.269 -1.69
-5.79 0.356 -1.76
-6 0.359 -1.75
-3.42 -0.564 -0.373
-3.84 -0.564 -0.578
-4.2 -0.564 -0.783
-4.54 -0.565 -0.918
-4.86 -0.565 -1.02
-5.16 -0.561 -1.11
-5.44 -0.549 -1.19
-5.69 -0.535 -1.24
-5.88 -0.548 -1.25

CELLS 1468 7340
4 12 3 2 11
4 13 4 3 12
4 13 3 6 12
4 13 3 4 6
4 13 4 5 6
4 14 4 5 13
4 14 5 6 13
4 15 5 6 14
4 15 6 13 14
4 16 6 13 15
4 16 6 12 13
4 16 7 6 15
4 17 7 8 16
4 18 8 9 17
4 21 12 11 20
4 22 13 12 21
4 22 13 15 16
4 23 15 16 22
4 23 14 13 22
4 23 13 15 22
4 23 13 14 15
4 24 15 16 23
4 24 14 15 23
4 25 15 16 24
4 25 7 8 17
4 25 16 7 17
4 25 15 7 16
4 26 8 17 25
4 26 17 8 18
4 27 18 17 26
4 28 19 11 20
4 31 22 14 23
4 32 23 22 31
4 34 24 25 33
4 34 24 15 25
4 36 26 34 35
4 36 26 25 34
4 36 27 26 35
4 37 28 20 29
4 37 11 20 28
4 38 29 21 30
4 41 31 32 40
4 42 32 33 41
4 42 23 24 33
4 42 32 23 33
4 43 24 33 42
4 43 33 24 34
4 44 35 34 43
4 45 35 34 44
4 45 36 35 44
4 45 34 35 36
4 46 37 29 38
4 46 20 29 37
4 49 40 39 48
4 51 42 41 50
4 52 43 42 51
4 53 43 42 52
4 53 33 42 43
4 53 34 44 45
4 53 34 43 44
4 53 34 33 43
4 53 44 43 52
4 55 46 38 47
4 55 20 29 46
4 55 29 38 46
4 56 47 39 48
4 58 49 48 57
4 59 50 49 58
4 60 51 50 59
4 61 52 51 60
4 62 52 53 61
4 62 52 44 53
4 63 44 53 62
4 63 53 54 62
4 63 53 45 54
4 63 44 45 53
4 64 0 46 55
4 64 46 20 55
4 64 37 20 46
4 64 0 37 46
4 64 0 28 37
4 64 28 11 37
4 64 11 20 37
4 65 55 56 64
4 65 47 39 56
4 65 38 39 47
4 65 38 30 39
4 65 55 47 56
4 65 38 47 55
4 66 39 56 65
4 66 56 57 65
4 66 48 39 40
4 66 56 48 57
4 66 39 48 56
4 67 40 48 66
4 67 48 57 66
4 67 57 48 49
4 67 48 40 49
4 67 57 58 66
4 67 57 49 58
4 68 40 49 67
4 68 49 58 67
4 68 58 59 67
4 68 58 50 59
4 68 58 49 50
4 68 49 41 50
4 68 40 41 49
4 69 41 50 68
4 69 50 41 42
4 69 50 59 68
4 69 59 60 68
4 69 59 51 60
4 69 59 50 51
4 69 50 42 51
4 70 42 51 69
4 70 51 42 43
4 70 51 60 69
4 70 60 61 69
4 70 60 52 61
4 70 60 51 52
4 70 51 43 52
4 71 43 52 70
4 71 43 35 44
4 71 52 43 44
4 71 52 61 70
4 71 61 62 70
4 71 61 52 62
4 71 52 44 62
4 72 35 44 71
4 72 44 62 71
4 72 62 63 71
4 72 62 44 63
4 72 44 45 63
4 72 44 36 45
4 72 44 35 36
4 73 11 20 64
4 73 0 28 64
4 73 28 11 64
4 73 19 11 28
4 73 0 19 28
4 73 0 10 19
4 73 10 11 19
4 73 10 2 11
4 74 11 20 73
4 74 20 64 73
4 74 64 65 73
4 74 64 55 65
4 74 20 55 64
4 74 20 29 55
4 74 55 38 65
4 74 29 38 55
4 74 29 21 38
4 74 38 30 65
4 74 21 30 38
4 74 20 11 12
4 74 20 12 21
4 74 20 21 29
4 75 12 21 74
4 75 21 30 74
4 75 30 65 74
4 75 65 66 74
4 75 21 12 13
4 75 21 13 22
4 75 21 22 30
4 75 65 39 66
4 75 30 39 65
4 76 13 22 75
4 76 22 30 75
4 76 30 39 75
4 76 39 66 75
4 76 66 67 75
4 76 66 40 67
4 76 22 13 14
4 76 39 40 66
4 76 39 31 40
4 76 30 31 39
4 76 30 22 31
4 77 14 22 76
4 77 22 31 76
4 77 22 14 31
4 77 14 23 31
4 77 31 40 76
4 77 40 67 76
4 77 67 68 76
4 77 67 40 68
4 77 40 41 68
4 77 31 23 32
4 77 31 32 41
4 77 40 31 41
4 78 14 23 77
4 78 23 14 24
4 78 23 32 77
4 78 32 41 77
4 78 41 68 77
4 78 68 69 77
4 78 68 41 69
4 78 41 42 69
4 78 41 32 42
4 78 32 23 42
4 78 23 24 42
4 79 42 69 78
4 79 24 42 78
4 79 24 15 34
4 79 24 34 43
4 79 42 24 43
4 79 42 43 70
4 79 69 42 70
4 80 63 71 72
4 80 34 43 79
4 80 43 70 79
4 80 70 71 79
4 80 70 43 71
4 80 43 35 71
4 80 43 34 35
4 80 35 34 26
4 80 35 26 27
4 81 27 35 80
4 81 35 71 80
4 81 71 72 80
4 81 71 35 72
4 81 35 36 72
4 81 35 27 36
4 82 0 10 73
4 82 10 2 73
4 82 1 2 10
4 82 0 1 10
4 83 2 73 82
4 83 73 74 82
4 83 11 12 74
4 83 11 3 12
4 83 11 2 3
4 83 73 11 74
4 83 2 11 73
4 84 3 12 83
4 84 12 74 83
4 84 74 75 83
4 84 74 12 75
4 84 12 13 75
4 84 12 4 13
4 84 12 3 4
4 85 4 13 84
4 85 13 75 84
4 85 75 76 84
4 85 75 13 76
4 85 13 14 76
4 85 13 4 14
4 86 14 76 85
4 86 4 14 85
4 86 4 5 14
4 86 76 14 77
4 87 14 77 86
4 87 5 14 86
4 87 14 5 15
4 87 14 24 78
4 87 14 15 24
4 87 77 14 78
4 88 24 78 87
4 88 15 24 87
4 88 15 34 79
4 88 34 25 26
4 88 15 25 34
4 88 15 7 25
4 88 7 8 25
4 88 25 8 26
4 88 24 15 79
4 88 78 24 79
4 89 8 26 88
4 89 34 79 88
4 89 26 34 88
4 89 34 26 80
4 89 79 34 80
4 89 79 80 88
4 89 8 18 26
4 90 18 26 89
4 90 26 18 27
4 90 26 80 89
4 90 26 27 80
4 90 80 27 81
4 100 27 81 90
[...]
CELL_DATA 1468
SCALARS elementVolume double 1
LOOKUP_TABLE default
5.16e-06
2.18e-05
0.000862
0.00113
0.00134
0.00017
0.0017
0.000552
0.00128
0.00255
0.00218
0.000823
0.000494
0.000953
7.82e-06
4.14e-05
0.00191
0.00175
0.000186
0.000562
0.00114
0.00122
0.000574
0.00117
0.00358
0.0041
0.00311
0.00482
0.005
0.00146
4.07e-05
0.00111
0.00023
0.00168
0.00259
0.00349
0.00355
0.00347
5.37e-05
9.79e-05
0.000213
0.000121
0.000231
0.00215
0.00178
0.00269
0.00295
0.00207
0.00414
0.000689
0.00373
5.32e-05
0.000109
4.41e-05
0.000115
0.00131
0.00246
0.00276
0.00416
0.00208
0.00312
0.00165
8.86e-05
0.000161
0.00013
0.000377
2.01e-05
0.000158
0.000478
0.000241
0.00288
0.00703
0.00729
0.00207
0.00946
0.0104
1.81e-05
4.98e-05
0.000123
4.48e-05
6.36e-05
0.000174
0.000468
2.54e-05
0.000327
0.000755
0.00142
0.000249
0.000575
0.00104
6.82e-05
0.00182
0.00066
0.00147
0.00207
0.000814
0.00104
0.00268
0.000108
0.00126
0.00321
0.0015
0.000166
0.00219
0.00167
0.0039
0.00376
0.0041
0.0041
0.0023
0.00021
0.00333
0.00227
0.00498
0.00624
0.00558
0.00417
0.000376
0.00528
0.00474
0.00871
0.0114
0.0157
0.0128
0.00693
0.000507
0.00768
0.0147
0.0162
0.0152
0.000142
0.0161
0.0163
0.0214
0.0191
0.000119
0.000109
0.000299
0.0003
0.00011
0.000124
0.000338
0.00082
0.00151
0.000747
2.51e-05
8.96e-05
0.000511
0.00135
0.000884
0.00116
0.00152
0.00116
0.00225
0.00198
0.00277
0.00178
0.00376
0.00333
0.00217
4.8e-05
0.00462
0.0056
0.0041
0.00211
0.00284
0.00665
0.00469
0.0035
0.0026
2.46e-05
0.00364
0.00795
0.0032
0.00488
0.00415
0.00578
0.0089
0.00691
0.00674
0.0105
0.00583
0.00434
9.02e-06
0.00502
0.0057
0.00949
0.00765
0.00677
0.011
0.0125
0.00997
0.00804
0.00599
1.13e-05
0.00693
0.00781
0.00865
0.0094
0.0205
0.00979
0.0257
0.0171
0.0143
0.0261
0.0117
0.0113
0.000148
0.0188
0.0153
1.55e-05
0.0168
0.0232
0.019
0.0248
0.0257
0.0207
0.0241
4.07e-05
0.0258
0.0259
0.0324
0.000149
0.000406
0.000423
0.000155
0.000868
8.14e-06
0.00209
0.00313
0.0023
0.00159
0.00175
0.00419
0.00278
2.31e-05
0.00367
0.0045
0.00618
0.00514
0.00727
0.00529
1.72e-05
0.00637
0.00761
0.0087
0.00843
0.0099
0.0112
0.00975
0.0103
0.0118
0.014
0.0125
0.0155
0.0119
0.0156
0.0193
0.0158
0.029
0.022
0.0489
0.0645
0.0708
0.00236
0.0179
0.0691
0.0207
0.0226
0.0281
0.0227
4.44e-06
0.0716
0.031
0.0387
0.0291
0.0358
0.0292
0.0246
0.0327
0.00376
0.00404
0.00364
0.00474
0.00432
0.00331
0.00158
0.0053
0.00565
0.00352
0.0223
0.0296
0.0297
0.00195
0.0242
0.0194
0.0178
0.03
0.0235
0.0216
0.00215
0.00797
0.00789
0.00642
0.00791
0.0107
0.0249
0.000708
0.0364
0.0106
0.0085
0.008
0.0377
0.0343
0.0336
0.0266
0.0125
0.0247
0.0182
0.0255
0.0157
0.0147
0.0242
0.0116
0.0226
0.0252
0.0195
0.00247
0.0249
0.00121
0.0096
0.00602
0.00399
0.00341
0.00241
0.00833
0.0107
0.00388
0.01
0.00425
0.00551
0.00553
0.00952
0.00564
0.0189
0.022
0.0223
0.00603
0.0086
0.0217
0.0228
0.0253
0.0256
0.026
0.00393
0.00411
0.0294
0.027
0.00741
0.0152
0.0101
0.0204
0.02
0.00451
0.0105
0.00628
0.00659
0.0407
0.0138
0.00867
0.0389
0.0279
0.00165
0.0193
0.0418
0.025
0.0252
0.0107
0.0119
0.0187
0.0338
0.0414
0.0344
0.0107
0.0112
0.0117
0.0212
0.00906
0.0227
0.039
0.027
0.029
0.0275
0.0252
0.0231
0.0163
0.0268
0.0429
0.0276
0.0255
0.0234
0.0214
0.0196
0.0114
0.018
0.011
0.0104
0.0311
0.0237
0.00936
0.014
0.0111
0.0129
0.00926
0.0152
0.0166
0.0181
0.0197
0.0212
0.0254
0.0147
0.0177
0.0308
0.00927
0.00682
0.00461
0.00152
0.000977
0.00164
0.00155
0.0034
0.00196
0.00467
0.0129
0.0153
0.00856
0.0136
0.000683
0.000682
0.00416
0.0112
0.00932
0.006
0.00699
0.0257
0.0441
0.0377
0.00414
0.000652
2.97e-05
0.000761
0.0213
0.00601
0.00884
0.0074
0.000776
2.87e-05
0.000838
0.000821
3.66e-05
0.000888
0.000848
7.78e-05
0.000952
0.000842
0.000822
2.76e-05
0.000854
0.00716
0.00931
0.00104
0.00465
0.00333
0.00124
0.000999
0.00168
0.00191
0.00121
0.00129
0.00089
0.00141
0.00236
0.00253
0.00132
0.000682
0.00138
0.000977
0.00105
0.0025
0.00236
0.00253
0.00139
0.00146
0.000779
0.000275
0.00108
0.00247
0.00229
0.00243
0.0014
0.00144
0.000839
0.0003
0.00107
0.00236
0.00224
0.00234
0.00143
0.00134
0.00131
0.0015
0.000908
0.000372
0.00114
0.00242
0.00217
0.00236
3.73e-05
0.00236
0.00135
0.000154
0.0161
0.0166
0.0192
0.0207
0.024
0.0203
0.0155
0.0102
0.00823
0.00631
0.00444
0.00467
0.00262
0.00602
0.000859
0.000895
0.000881
0.000424
0.000954
0.000965
0.000908
0.00361
0.00596
0.00236
0.00344
0.000161
0.00136
0.00206
0.000542
0.00319
0.00677
0.00641
0.00518
0.00318
0.00132
0.00308
0.00211
0.000853
0.00216
0.00526
0.00332
0.00216
0.00284
0.00279
0.00541
0.00505
0.00169
0.00302
0.00255
0.00318
0.00276
0.00527
0.00313
0.000235
0.00517
0.00245
0.00336
0.00286
0.00556
0.00468
0.00201
8.06e-05
0.00358
0.00284
0.00264
0.00485
0.000269
0.00025
0.0266
0.0343
0.0301
0.0328
0.0261
0.0273
0.0218
0.024
0.0238
0.0227
0.0157
0.0221
0.0156
0.012
0.0169
0.0211
0.000194
0.000121
0.0214
0.0285
0.0161
0.0199
0.0136
0.0159
0.0124
0.015
0.0113
0.0207
0.0211
0.0194
0.017
0.0139
0.00473
0.0133
0.0248
0.021
0.00737
0.00402
0.0198
0.0162
0.00585
0.00439
0.0185
0.00658
0.00455
0.0034
0.017
0.00576
0.00388
0.00276
0.00257
0.02
0.0177
0.0155
0.00526
0.00678
0.00458
0.0106
0.00813
0.00148
0.00481
0.00442
0.0195
0.0165
0.00178
0.0116
0.00271
0.0153
0.00551
0.00447
0.0191
0.0134
0.0323
0.0274
0.0257
0.0148
0.031
0.0422
0.0243
0.0367
0.0393
0.0345
0.0391
0.0426
0.0377
0.0481
0.0467
0.0385
0.0398
0.0431
0.0449
0.0511
0.048
0.0379
0.0381
0.0414
0.0462
0.0512
0.0466
0.0347
0.0356
0.0384
0.0449
0.0502
0.045
0.0435
0.0321
0.000179
0.0352
0.0354
0.0485
0.0399
0.0423
0.0319
0.000542
0.000986
0.00122
0.034
0.032
0.0312
0.0248
0.000526
0.0244
0.0283
0.037
0.0457
0.0326
0.0333
0.000435
0.0384
0.000155
0.000423
0.0023
5.17e-06
0.00313
0.00419
0.00514
0.000862
2.18e-05
0.00113
0.00618
0.00727
0.00134
0.0017
0.00017
0.0087
0.0099
0.0112
0.0118
0.000552
0.00239
0.014
0.0294
0.0458
0.00297
0.0368
0.00128
0.00255
0.00218
0.000823
0.000494
0.000954
0.00698
0.0833
0.00556
0.0735
7.87e-06
4.14e-05
0.00191
0.000186
0.000562
0.00114
0.00175
0.000574
0.0155
0.0193
0.00122
0.00117
0.00358
0.0645
0.0041
0.00311
0.0489
0.00482
0.0708
0.031
0.0691
0.0716
0.005
0.00146
0.0387
4.07e-05
0.00111
0.00023
0.00168
0.022
0.00259
0.0226
0.0289
0.00348
0.00356
0.00347
5.37e-05
9.79e-05
0.000213
0.000121
0.00178
0.000232
0.00215
0.00269
0.00296
0.00207
0.00412
0.000686
0.00372
5.32e-05
0.000109
4.41e-05
0.000114
0.00131
0.00247
0.00277
0.00208
0.00313
0.00415
0.00165
8.85e-05
0.000161
0.00013
0.000377
2.02e-05
0.000158
0.000478
0.000243
0.00289
0.00703
0.00207
0.00946
0.0073
0.0104
4.98e-05
0.000174
6.36e-05
1.81e-05
4.47e-05
0.000123
0.000468
0.000327
0.000755
0.00142
0.000249
2.55e-05
0.000575
0.00104
6.82e-05
0.00182
0.00066
0.00147
0.000108
0.00126
0.00207
0.000814
0.00104
0.00268
0.00321
0.000165
0.00219
0.0015
0.00167
0.0039
0.00376
0.00021
0.00333
0.0023
0.00227
0.00498
0.0041
0.00411
0.00624
0.00557
0.000376
0.00528
0.00417
0.00474
0.00871
0.00693
0.000508
0.00768
0.0147
0.0114
0.0128
0.0157
0.0152
0.000142
0.0161
0.0163
0.0214
0.0163
0.0191
0.000119
0.000299
0.000338
0.00175
0.000868
0.00082
0.000406
0.000124
0.000148
0.000109
0.000109
0.0003
0.00116
0.00225
0.000884
8.96e-05
0.00051
0.00135
0.00116
0.00152
0.00178
0.000747
0.00159
0.00151
0.00278
0.00277
0.00198
0.00209
8.14e-06
2.51e-05
0.00367
0.00376
0.0041
0.00529
0.0056
0.00462
0.0045
0.00333
2.31e-05
0.00217
4.8e-05
0.00211
0.00284
1.72e-05
0.00637
0.00665
0.00469
0.00578
0.0035
0.00415
0.0026
0.0032
0.00488
2.46e-05
0.00364
0.00843
0.00796
0.00761
0.00975
0.00583
0.00434
9.01e-06
0.00502
0.0103
0.00949
0.00765
0.0057
0.00677
0.0089
0.00691
0.00674
0.0105
0.011
0.0118
0.0125
0.0125
0.0156
0.0205
0.00997
0.00804
0.00599
1.13e-05
0.00693
0.00781
0.00865
0.00939
0.0179
0.0257
0.0117
0.0113
0.00979
0.0261
0.0143
0.0158
0.0171
0.00236
0.0207
0.0227
0.0153
1.55e-05
0.0168
0.0232
0.0188
0.019
0.0257
0.0358
0.0291
0.0248
0.0281
4.44e-06
0.000148
0.0207
0.0292
0.0241
4.07e-05
0.0258
0.0259
0.0324
0.0257
0.0246
0.031
0.062
0.0714
0.00793
0.00913
0.0617
0.0525
0.00799
0.0327
0.0147
0.0421
0.0393
0.0377
0.0481
0.0449
0.0467
0.0511
0.048
0.0462
0.0512
0.0466
0.0449
0.0399
0.0502
0.045
0.0435
0.00377
0.00405
0.0485
0.0423
0.032
0.0312
0.00474
0.00364
0.0457
0.00331
0.00432
0.0326
0.00157
0.0053
0.00565
0.00352
0.0223
0.0296
0.00194
0.0194
0.0242
0.0297
0.03
0.0235
0.0178
0.0216
0.0384
0.00215
0.00797
0.00789
0.00642
0.00791
0.0107
0.0336
0.0106
0.0085
0.0377
0.000707
0.0249
0.0364
0.0343
0.008
0.0266
0.0247
0.0182
0.0125
0.0157
0.0255
0.0242
0.0147
0.0116
0.0252
0.0226
0.0195
0.00247
0.0249
0.0341
0.0012
0.0096
0.00602
0.004
0.00341
0.00241
0.00388
0.01
0.00833
0.0107
0.00425
0.00551
0.00553
0.00953
0.0101
0.00563
0.0253
0.0256
0.00862
0.00604
0.0217
0.0189
0.022
0.0223
0.0229
0.026
0.00392
0.00411
0.0294
0.027
0.00741
0.0152
0.0204
0.00865
0.0138
0.0389
0.02
0.00451
0.0105
0.00659
0.00628
0.0407
0.0107
0.0119
0.0279
0.025
0.0194
0.00164
0.0418
0.0252
0.0188
0.0338
0.0414
0.0344
0.0117
0.0212
0.0107
0.0112
0.0231
0.0252
0.0275
0.029
0.0227
0.00905
0.039
0.027
0.0237
0.0268
0.0163
0.0429
0.0276
0.0255
0.0234
0.0214
0.0196
0.0114
0.018
0.011
0.0104
0.0311
0.0177
0.0147
0.0308
0.0255
0.0212
0.0197
0.0181
0.0166
0.0152
0.014
0.0129
0.0111
0.00936
0.00926
0.147
0.16
0.174
0.189
0.206
0.225
0.245
0.257
0.273
0.138
0.00927
0.0364
0.00682
0.117
0.138
0.000979
0.00153
0.00461
0.00157
0.00858
0.0136
0.00164
0.00196
0.00467
0.013
0.00341
0.0154
0.000682
0.000683
0.00934
0.0112
0.00416
0.000652
0.00415
0.00601
0.00699
0.0257
0.0377
0.0441
0.0213
0.00601
0.00884
0.0074
2.97e-05
0.000761
0.000776
2.87e-05
0.000839
0.000821
3.66e-05
0.000888
0.000848
7.79e-05
0.000952
0.000842
0.000822
2.76e-05
0.000854
0.00718
0.00931
0.00466
0.00333
0.00105
0.00124
0.000997
0.00168
0.00191
0.00121
0.00129
0.00089
0.00141
0.00236
0.00236
0.00253
0.00132
0.00138
0.000978
0.00105
0.0025
0.000682
0.00253
0.00229
0.00247
0.00139
0.000275
0.000779
0.00108
0.00146
0.00243
0.00144
0.0014
0.0003
0.000839
0.00107
0.00236
0.00224
0.00235
0.00134
0.00131
0.00217
0.00242
0.00143
0.000372
0.000908
0.00114
0.0015
0.00236
3.72e-05
0.00236
0.00135
0.000154
0.0161
0.0166
0.0192
0.0207
0.0241
0.0203
0.0155
0.0102
0.00824
0.00633
0.00445
0.00467
0.00602
0.000882
0.000862
0.000955
0.000977
0.000933
0.000896
0.000422
0.00263
0.00361
0.00236
0.00344
0.000162
0.00135
0.00596
0.000542
0.00206
0.00319
0.00677
0.00641
0.00518
0.00132
0.00308
0.00318
0.000853
0.00211
0.00216
0.00526
0.00332
0.00216
0.00284
0.00279
0.00541
0.00255
0.00505
0.00169
0.00302
0.00527
0.00276
0.00318
0.00313
0.000234
0.00245
0.00517
0.00556
0.00286
0.00336
0.00468
0.00485
0.00202
7.73e-05
0.00358
0.00264
0.00284
0.0266
0.0343
0.0301
0.0243
0.024
0.0274
0.0322
0.0328
0.0261
0.0273
0.0218
0.000269
0.00025
0.000194
0.0367
0.0238
0.0227
0.0425
0.0214
0.0345
0.0221
0.0156
0.012
0.0169
0.0211
0.0285
0.0157
0.0161
0.000121
0.0158
0.0136
0.0199
0.0391
0.0431
0.0385
0.0211
0.0207
0.0113
0.0124
0.015
0.00472
0.0139
0.0194
0.0398
0.0414
0.0379
0.017
0.0248
0.0133
0.021
0.0198
0.0162
0.00584
0.00439
0.00738
0.00401
0.0384
0.0381
0.0347
0.0185
0.000179
0.0356
0.0321
0.00659
0.00454
0.00339
0.00256
0.00577
0.00388
0.00278
0.017
0.0352
0.000542
0.0319
0.0354
0.0177
0.02
0.00677
0.00147
0.0154
0.034
0.0248
0.0165
0.0195
0.00441
0.0048
0.00458
0.0106
0.00816
0.00526
0.00271
0.0116
0.0244
0.00178
0.037
0.0283
0.0153
0.0134
0.0191
0.00446
0.00551
0.0333
0.000526
0.00122
0.000986
0.000435

