# vtk DataFile Version 2.0
Grid generated by gridLab. FileName: ../../data/Sphere.geo.3d.vtk
ASCII
DATASET UNSTRUCTURED_GRID
POINTS 58 double
0 -1 0
0.706 -0.706 0
1 0 0
0.706 0.706 0
0 1 0
0 -0.921 0.388
0.65 -0.65 0.388
0.921 -1.11e-16 0.388
0.65 0.65 0.388
1.11e-16 0.921 0.388
0 -0.706 0.706
0.498 -0.498 0.706
0.706 2.22e-16 0.706
0.498 0.498 0.706
-2.22e-16 0.706 0.706
0 -0.388 0.921
0.274 -0.274 0.921
0.388 3.33e-16 0.921
0.274 0.274 0.921
-3.33e-16 0.388 0.921
0 0 1
-0.706 -0.706 0
-1 0 0
-0.706 0.706 0
-0.65 -0.65 0.388
-0.921 -1.11e-16 0.388
-0.65 0.65 0.388
-0.498 -0.498 0.706
-0.706 2.22e-16 0.706
-0.498 0.498 0.706
-0.274 -0.274 0.921
-0.388 3.33e-16 0.921
-0.274 0.274 0.921
0 -0.921 -0.388
0.65 -0.65 -0.388
0.921 -1.11e-16 -0.388
0.65 0.65 -0.388
1.11e-16 0.921 -0.388
0 -0.706 -0.706
0.498 -0.498 -0.706
0.706 2.22e-16 -0.706
0.498 0.498 -0.706
-2.22e-16 0.706 -0.706
0 -0.388 -0.921
0.274 -0.274 -0.921
0.388 3.33e-16 -0.921
0.274 0.274 -0.921
-3.33e-16 0.388 -0.921
0 0 -1
-0.65 -0.65 -0.388
-0.921 -1.11e-16 -0.388
-0.65 0.65 -0.388
-0.498 -0.498 -0.706
-0.706 2.22e-16 -0.706
-0.498 0.498 -0.706
-0.274 -0.274 -0.921
-0.388 3.33e-16 -0.921
-0.274 0.274 -0.921

CELLS 172 860
4 6 0 1 5
4 7 2 1 6
4 8 2 3 7
4 9 4 3 8
4 11 5 6 10
4 11 7 6 8
4 12 7 6 11
4 13 7 8 12
4 13 11 7 12
4 13 8 7 11
4 14 9 8 13
4 17 13 11 16
4 17 12 11 13
4 18 16 13 17
4 20 17 16 18
4 24 0 5 21
4 24 5 6 11
4 25 21 22 24
4 26 23 22 25
4 26 9 4 23
4 26 13 8 9
4 27 5 10 24
4 27 11 5 24
4 27 10 5 11
4 27 10 11 15
4 27 16 13 18
4 27 16 11 13
4 27 15 11 16
4 27 24 25 26
4 28 24 25 27
4 29 26 25 28
4 29 25 27 28
4 29 25 26 27
4 29 13 18 27
4 29 18 13 19
4 29 13 14 19
4 29 9 13 26
4 29 14 9 26
4 29 13 9 14
4 30 18 27 29
4 30 18 16 27
4 30 16 15 27
4 30 15 16 20
4 30 16 18 20
4 31 27 29 30
4 31 27 28 29
4 32 29 30 31
4 32 30 20 31
4 32 18 20 30
4 32 29 18 30
4 32 19 18 29
4 32 18 19 20
4 33 0 5 24
4 33 5 6 24
4 33 5 0 6
4 34 1 0 33
4 34 0 6 33
4 34 0 1 6
4 34 6 24 33
4 34 6 11 24
4 34 6 8 11
4 34 11 8 13
4 34 8 6 7
4 34 6 2 7
4 34 6 1 2
4 34 24 11 27
4 35 1 2 34
4 35 2 7 34
4 35 7 8 34
4 35 7 2 8
4 36 3 2 35
4 36 2 8 35
4 36 2 3 8
4 36 8 34 35
4 36 8 13 34
4 36 13 26 29
4 36 13 8 26
4 36 8 9 26
4 36 8 4 9
4 36 8 3 4
4 37 3 4 36
4 37 4 9 36
4 37 9 26 36
4 37 9 4 26
4 39 34 33 38
4 39 27 24 34
4 39 13 11 34
4 39 11 27 34
4 39 11 13 27
4 39 13 34 36
4 39 27 13 29
4 39 34 35 36
4 40 34 35 39
4 41 36 35 40
4 41 35 39 40
4 41 35 36 39
4 41 13 29 39
4 41 36 13 39
4 41 29 13 36
4 41 26 29 36
4 42 36 37 41
4 45 39 41 44
4 45 39 40 41
4 46 41 44 45
4 48 44 45 46
4 49 27 24 39
4 49 26 27 29
4 49 26 24 27
4 49 26 25 24
4 49 22 24 25
4 49 24 22 21
4 49 24 34 39
4 49 34 33 39
4 49 24 33 34
4 49 0 21 33
4 49 24 0 33
4 49 21 0 24
4 50 22 21 49
4 50 25 22 49
4 50 26 25 49
4 50 22 25 26
4 51 22 23 50
4 51 26 22 50
4 51 23 22 26
4 51 49 26 50
4 51 36 26 41
4 51 41 37 36
4 51 26 36 37
4 51 23 4 37
4 51 4 26 37
4 51 4 23 26
4 51 26 29 41
4 51 29 26 49
4 52 49 29 51
4 52 27 29 49
4 52 39 27 49
4 52 29 27 39
4 52 41 44 46
4 52 44 41 39
4 52 39 43 44
4 52 38 33 49
4 52 33 39 49
4 52 33 38 39
4 52 39 38 43
4 52 29 39 41
4 52 50 49 51
4 53 50 49 52
4 54 50 51 53
4 54 52 50 53
4 54 51 50 52
4 54 46 41 52
4 54 41 46 47
4 54 42 41 47
4 54 41 29 52
4 54 29 51 52
4 54 29 41 51
4 54 41 37 51
4 54 37 42 51
4 54 37 41 42
4 55 52 46 54
4 55 44 46 52
4 55 43 44 52
4 55 44 43 48
4 55 46 44 48
4 56 54 52 55
4 56 53 52 54
4 57 48 55 56
4 57 55 54 56
4 57 48 46 55
4 57 46 54 55
4 57 46 47 54
4 57 47 46 48

CELL_TYPES 172
10
10
10
10
10
10
10
10
10
10
10
10
10
10
10
10
10
10
10
10
10
10
10
10
10
10
10
10
10
10
10
10
10
10
10
10
10
10
10
10
10
10
10
10
10
10
10
10
10
10
10
10
10
10
10
10
10
10
10
10
10
10
10
10
10
10
10
10
10
10
10
10
10
10
10
10
10
10
10
10
10
10
10
10
10
10
10
10
10
10
10
10
10
10
10
10
10
10
10
10
10
10
10
10
10
10
10
10
10
10
10
10
10
10
10
10
10
10
10
10
10
10
10
10
10
10
10
10
10
10
10
10
10
10
10
10
10
10
10
10
10
10
10
10
10
10
10
10
10
10
10
10
10
10
10
10
10
10
10
10
10
10
10
10
10
10
10
10
10
10
10
10

CELL_DATA 172
SCALARS elementVolume double 1
LOOKUP_TABLE default
8.53e-06
8.53e-06
8.53e-06
8.53e-06
1.22e-05
0.0187
1.22e-05
1.22e-05
0.011
0.0143
1.22e-05
0.00409
0.00742
0.00224
0.000824
8.53e-06
0.0187
8.53e-06
8.53e-06
8.53e-06
0.0187
1.22e-05
0.0143
0.011
0.00742
0.0195
0.0356
0.00409
0.0187
1.22e-05
1.22e-05
0.011
0.0143
0.0356
0.00409
0.00742
0.0143
1.22e-05
0.011
0.0195
0.0107
0.00224
0.000824
0.00394
0.00409
0.00742
0.00224
0.000824
0.00394
0.0107
0.00224
0.000824
0.00664
0.0456
0.00664
8.53e-06
0.00664
0.00723
0.0456
0.0256
0.0256
0.0196
0.0456
0.00664
0.00723
0.0196
8.53e-06
0.00664
0.0456
0.00664
8.53e-06
0.00664
0.00723
0.0456
0.0256
0.0196
0.0256
0.0456
0.00664
0.00723
8.53e-06
0.00664
0.0456
0.00664
1.22e-05
0.0269
0.0357
0.0357
0.234
0.0465
0.234
0.0187
1.22e-05
1.22e-05
0.011
0.0143
0.234
0.0357
0.0357
0.0269
1.22e-05
0.00409
0.00742
0.00224
0.000824
0.0196
0.0196
0.0256
0.0456
0.00664
0.00723
0.0256
0.0187
0.0456
8.53e-06
0.00664
0.00723
8.53e-06
0.00664
0.0456
0.00664
8.53e-06
0.00664
0.00723
0.0456
0.0256
0.0187
0.0456
8.53e-06
0.00664
0.00723
0.0196
0.0256
0.0465
0.0357
0.0357
0.234
0.0195
0.0356
0.00409
1.22e-05
0.0143
0.011
0.00742
0.234
0.0187
1.22e-05
1.22e-05
0.011
0.0143
0.0356
0.00409
0.00742
0.234
0.0357
0.0357
0.0143
1.22e-05
0.011
0.0195
0.0107
0.00224
0.000824
0.00394
0.00409
0.00742
0.000824
0.00224
0.00394
0.0107
0.00224
0.000824

